formaldehyde                                                            
FOpt      UBLYP                                                       CC-pVTZ             
Number of atoms                            I                4
Info1-9                                    I   N=           9
          18          12           0           0           0         110
           2          18         202
Full Title                                 C   N=           1
formaldehyde
Route                                      C   N=           5
#P ublyp cc-pVTZ pop=orbitals=20 opt output=(mat) guess=save
Charge                                     I                0
Multiplicity                               I                1
Number of electrons                        I               16
Number of alpha electrons                  I                8
Number of beta electrons                   I                8
Number of basis functions                  I               88
Number of independent functions            I               88
Number of point charges in /Mol/           I                0
Number of translation vectors              I                0
Atomic numbers                             I   N=           4
           6           8           1           1
Nuclear charges                            R   N=           4
  6.00000000E+00  8.00000000E+00  1.00000000E+00  1.00000000E+00
Current cartesian coordinates              R   N=          12
  8.55856200E-16  3.47378998E-16 -1.00335648E+00 -1.09565611E-15 -4.44710129E-16
  1.28448408E+00  4.43695509E-15  1.78348116E+00 -2.12786686E+00 -1.02525686E-15
 -1.78348116E+00 -2.12786686E+00
Number of symbols in /Mol/                 I                0
Int Atom Types                             I   N=           4
           0           0           0           0
Force Field                                I                0
Atom Types                                 C   N=           4
                                                
MM charges                                 R   N=           4
  0.00000000E+00  0.00000000E+00  0.00000000E+00  0.00000000E+00
Integer atomic weights                     I   N=           4
          12          16           1           1
Real atomic weights                        R   N=           4
  1.20000000E+01  1.59949146E+01  1.00782504E+00  1.00782504E+00
Atom fragment info                         I   N=           4
           0           0           0           0
Atom residue num                           I   N=           4
           0           0           0           0
Nuclear spins                              I   N=           4
           0           0           1           1
Nuclear ZEff                               R   N=           4
 -3.60000000E+00 -5.60000000E+00 -1.00000000E+00 -1.00000000E+00
Nuclear ZNuc                               R   N=           4
  6.00000000E+00  8.00000000E+00  1.00000000E+00  1.00000000E+00
Nuclear QMom                               R   N=           4
  0.00000000E+00  0.00000000E+00  0.00000000E+00  0.00000000E+00
Nuclear GFac                               R   N=           4
  0.00000000E+00  0.00000000E+00  2.79284600E+00  2.79284600E+00
MicOpt                                     I   N=           4
          -1          -1          -1          -1
Number of residues                         I                0
Number of secondary structures             I                0
Redundant internal dimensions              I   N=           4
           7           3           3           1
Redundant internal coordinate indices      I   N=          28
           1           2           0           0           1           3
           0           0           1           4           0           0
           2           1           3           0           2           1
           4           0           3           1           4           0
           2           1           4           3
Redundant internal coordinates             R   N=           7
  2.28784056E+00  2.10839480E+00  2.10839480E+00  2.13335116E+00  2.13335116E+00
  2.01648299E+00  3.14159265E+00
ZRed-IntVec                                I   N=           7
           0           0           0           0           0           0
           0
ZRed-FPVec                                 R   N=           7
  0.00000000E+00  0.00000000E+00  0.00000000E+00  0.00000000E+00  0.00000000E+00
  0.00000000E+00  0.00000000E+00
ZRed-Constraint1                           R   N=           7
  2.37803136E+00  2.02200695E+00  2.02200695E+00  2.09439510E+00  2.09439510E+00
  2.09439510E+00  3.14159265E+00
ZRed-Constraint2                           R   N=           7
  0.00000000E+00  0.00000000E+00  0.00000000E+00  0.00000000E+00  0.00000000E+00
  0.00000000E+00  0.00000000E+00
SymInf integers                            I   N=          26
           2           4           1           1           1          -1
          -1           1          -1           1           1           1
          -1           1           0           0           0           0
           0           0           0           0           0           0
           0           0
RotTr to input orientation                 R   N=          12
  1.00000000E+00 -1.47010201E-15  8.52993144E-16  1.47010201E-15  1.00000000E+00
  3.46216927E-16 -8.52993144E-16 -3.46216927E-16  1.00000000E+00 -6.14046253E-17
  1.38777878E-17  2.00173873E-02
Number of contracted shells                I               32
Number of primitive shells                 I               62
Pure/Cartesian d shells                    I                0
Pure/Cartesian f shells                    I                0
Highest angular momentum                   I                3
Largest degree of contraction              I                7
Shell types                                I   N=          32
           0           0           0           0           1           1
           1          -2          -2          -3           0           0
           0           0           1           1           1          -2
          -2          -3           0           0           0           1
           1          -2           0           0           0           1
           1          -2
Number of primitives per shell             I   N=          32
           7           6           1           1           3           1
           1           1           1           1           7           6
           1           1           3           1           1           1
           1           1           3           1           1           1
           1           1           3           1           1           1
           1           1
Shell to atom map                          I   N=          32
           1           1           1           1           1           1
           1           1           1           1           2           2
           2           2           2           2           2           2
           2           2           3           3           3           3
           3           3           4           4           4           4
           4           4
Primitive exponents                        R   N=          62
  8.23600000E+03  1.23500000E+03  2.80800000E+02  7.92700000E+01  2.55900000E+01
  8.99700000E+00  3.31900000E+00  2.80800000E+02  7.92700000E+01  2.55900000E+01
  8.99700000E+00  3.31900000E+00  3.64300000E-01  9.05900000E-01  1.28500000E-01
  1.87100000E+01  4.13300000E+00  1.20000000E+00  3.82700000E-01  1.20900000E-01
  1.09700000E+00  3.18000000E-01  7.61000000E-01  1.53300000E+04  2.29900000E+03
  5.22400000E+02  1.47300000E+02  4.75500000E+01  1.67600000E+01  6.20700000E+00
  5.22400000E+02  1.47300000E+02  4.75500000E+01  1.67600000E+01  6.20700000E+00
  6.88200000E-01  1.75200000E+00  2.38400000E-01  3.44600000E+01  7.74900000E+00
  2.28000000E+00  7.15600000E-01  2.14000000E-01  2.31400000E+00  6.45000000E-01
  1.42800000E+00  3.38700000E+01  5.09500000E+00  1.15900000E+00  3.25800000E-01
  1.02700000E-01  1.40700000E+00  3.88000000E-01  1.05700000E+00  3.38700000E+01
  5.09500000E+00  1.15900000E+00  3.25800000E-01  1.02700000E-01  1.40700000E+00
  3.88000000E-01  1.05700000E+00
Contraction coefficients                   R   N=          62
  5.41978320E-04  4.19287382E-03  2.15221621E-02  8.35343220E-02  2.39582846E-01
  4.42852842E-01  3.51799562E-01 -5.94922494E-05 -1.14815831E-03 -1.00191374E-02
 -6.12194923E-02 -1.73269854E-01  1.07291519E+00  1.00000000E+00  1.00000000E+00
  3.94263872E-02  2.44088985E-01  8.15492009E-01  1.00000000E+00  1.00000000E+00
  1.00000000E+00  1.00000000E+00  1.00000000E+00  5.19808943E-04  4.02025621E-03
  2.07128267E-02  8.10105536E-02  2.35962985E-01  4.42653446E-01  3.57064423E-01
 -4.42115008E-05 -1.22591041E-03 -1.05517725E-02 -6.74452633E-02 -1.71198607E-01
  1.07329856E+00  1.00000000E+00  1.00000000E+00  4.11634896E-02  2.57762836E-01
  8.02419274E-01  1.00000000E+00  1.00000000E+00  1.00000000E+00  1.00000000E+00
  1.00000000E+00  2.54948632E-02  1.90362766E-01  8.52162022E-01  1.00000000E+00
  1.00000000E+00  1.00000000E+00  1.00000000E+00  1.00000000E+00  2.54948632E-02
  1.90362766E-01  8.52162022E-01  1.00000000E+00  1.00000000E+00  1.00000000E+00
  1.00000000E+00  1.00000000E+00
Coordinates of each shell                  R   N=          96
  0.00000000E+00 -4.43734259E-31 -1.00335648E+00  0.00000000E+00 -4.43734259E-31
 -1.00335648E+00  0.00000000E+00 -4.43734259E-31 -1.00335648E+00  0.00000000E+00
 -4.43734259E-31 -1.00335648E+00  0.00000000E+00 -4.43734259E-31 -1.00335648E+00
  0.00000000E+00 -4.43734259E-31 -1.00335648E+00  0.00000000E+00 -4.43734259E-31
 -1.00335648E+00  0.00000000E+00 -4.43734259E-31 -1.00335648E+00  0.00000000E+00
 -4.43734259E-31 -1.00335648E+00  0.00000000E+00 -4.43734259E-31 -1.00335648E+00
 -9.86076132E-32  6.90253292E-31  1.28448408E+00 -9.86076132E-32  6.90253292E-31
  1.28448408E+00 -9.86076132E-32  6.90253292E-31  1.28448408E+00 -9.86076132E-32
  6.90253292E-31  1.28448408E+00 -9.86076132E-32  6.90253292E-31  1.28448408E+00
 -9.86076132E-32  6.90253292E-31  1.28448408E+00 -9.86076132E-32  6.90253292E-31
  1.28448408E+00 -9.86076132E-32  6.90253292E-31  1.28448408E+00 -9.86076132E-32
  6.90253292E-31  1.28448408E+00 -9.86076132E-32  6.90253292E-31  1.28448408E+00
 -5.91645679E-31  1.78348116E+00 -2.12786686E+00 -5.91645679E-31  1.78348116E+00
 -2.12786686E+00 -5.91645679E-31  1.78348116E+00 -2.12786686E+00 -5.91645679E-31
  1.78348116E+00 -2.12786686E+00 -5.91645679E-31  1.78348116E+00 -2.12786686E+00
 -5.91645679E-31  1.78348116E+00 -2.12786686E+00 -2.18413450E-16 -1.78348116E+00
 -2.12786686E+00 -2.18413450E-16 -1.78348116E+00 -2.12786686E+00 -2.18413450E-16
 -1.78348116E+00 -2.12786686E+00 -2.18413450E-16 -1.78348116E+00 -2.12786686E+00
 -2.18413450E-16 -1.78348116E+00 -2.12786686E+00 -2.18413450E-16 -1.78348116E+00
 -2.12786686E+00
Constraint Structure                       R   N=          12
 -8.62094911E-16 -3.88712185E-16 -1.08265763E+00  1.16634953E-15  4.34602522E-16
  1.29537372E+00 -4.29878338E-15  1.75110938E+00 -2.09366111E+00  8.49835488E-16
 -1.75110938E+00 -2.09366111E+00
Constraint Force Constants                 R   N=          12
  0.00000000E+00  0.00000000E+00  0.00000000E+00  0.00000000E+00  0.00000000E+00
  0.00000000E+00  0.00000000E+00  0.00000000E+00  0.00000000E+00  0.00000000E+00
  0.00000000E+00  0.00000000E+00
Num ILSW                                   I              100
ILSW                                       I   N=         100
           1           0           0           1           2           0
           0           0           0           0        4002          -1
           5           0           0           0           2          -1
           0           0           0           0           1           0
           1           0           0           0           0           0
           0           0      100000           0          -1           0
           0           0           0           0           0           0
           0           0           0           1           0           0
           0 -2000000000           1           0           0           0
           0           0           4          65           0           0
           0           0           0           0           0           0
           0           0           0           4           0           1
           0           0           0           0           0           0
           0           0           0           0           0           0
           0           0           0           0           0           0
           0           0           0           0           0           0
           0           0           0           0
Num RLSW                                   I               65
RLSW                                       R   N=          65
  1.00000000E+00  1.00000000E+00  1.00000000E+00  1.00000000E+00  0.00000000E+00
  0.00000000E+00  0.00000000E+00  1.00000000E+00  0.00000000E+00  0.00000000E+00
  0.00000000E+00  0.00000000E+00  1.00000000E+00  0.00000000E+00  0.00000000E+00
  0.00000000E+00  0.00000000E+00  1.00000000E+00  0.00000000E+00  0.00000000E+00
  0.00000000E+00  0.00000000E+00  1.00000000E+00  0.00000000E+00  0.00000000E+00
  0.00000000E+00  0.00000000E+00  1.00000000E+00  0.00000000E+00  0.00000000E+00
  0.00000000E+00  0.00000000E+00  1.00000000E+00  0.00000000E+00  0.00000000E+00
  0.00000000E+00  0.00000000E+00  0.00000000E+00  1.00000000E+00  1.00000000E+00
  0.00000000E+00  1.00000000E+00  0.00000000E+00  0.00000000E+00  0.00000000E+00
  0.00000000E+00  0.00000000E+00  0.00000000E+00  0.00000000E+00  0.00000000E+00
  0.00000000E+00  0.00000000E+00  1.00000000E+00  1.00000000E+00  1.00000000E+00
  1.00000000E+00  0.00000000E+00  0.00000000E+00  0.00000000E+00  0.00000000E+00
  0.00000000E+00  0.00000000E+00  0.00000000E+00  0.00000000E+00  2.00000000E-11
MxBond                                     I                3
NBond                                      I   N=           4
           3           1           1           1
IBond                                      I   N=          12
           2           3           4           1           0           0
           1           0           0           1           0           0
RBond                                      R   N=          12
  2.00000000E+00  1.00000000E+00  1.00000000E+00  2.00000000E+00  0.00000000E+00
  0.00000000E+00  1.00000000E+00  0.00000000E+00  0.00000000E+00  1.00000000E+00
  0.00000000E+00  0.00000000E+00
Virial Ratio                               R      2.005616751323993E+00
SCF Energy                                 R     -1.145231312199969E+02
Total Energy                               R     -1.145231312199969E+02
S**2                                       R     -5.329070518200751E-15
S**2 after annihilation                    R     -1.243449787580162E-13
RMS Force                                  R      4.592787810323719E-05
RMS Density                                R      2.315840130904541E-09
Job Status                                 I                1
Nuclear derivative order                   I                1
External E-field                           R   N=         105
  0.00000000E+00  0.00000000E+00  0.00000000E+00  0.00000000E+00  0.00000000E+00
  0.00000000E+00  0.00000000E+00  0.00000000E+00  0.00000000E+00  0.00000000E+00
  0.00000000E+00  0.00000000E+00  0.00000000E+00  0.00000000E+00  0.00000000E+00
  0.00000000E+00  0.00000000E+00  0.00000000E+00  0.00000000E+00  0.00000000E+00
  0.00000000E+00  0.00000000E+00  0.00000000E+00  0.00000000E+00  0.00000000E+00
  0.00000000E+00  0.00000000E+00  0.00000000E+00  0.00000000E+00  0.00000000E+00
  0.00000000E+00  0.00000000E+00  0.00000000E+00  0.00000000E+00  0.00000000E+00
  0.00000000E+00  0.00000000E+00  0.00000000E+00  0.00000000E+00  0.00000000E+00
  0.00000000E+00  0.00000000E+00  0.00000000E+00  0.00000000E+00  0.00000000E+00
  0.00000000E+00  0.00000000E+00  0.00000000E+00  0.00000000E+00  0.00000000E+00
  0.00000000E+00  0.00000000E+00  0.00000000E+00  0.00000000E+00  0.00000000E+00
  0.00000000E+00  0.00000000E+00  0.00000000E+00  0.00000000E+00  0.00000000E+00
  0.00000000E+00  0.00000000E+00  0.00000000E+00  0.00000000E+00  0.00000000E+00
  0.00000000E+00  0.00000000E+00  0.00000000E+00  0.00000000E+00  0.00000000E+00
  0.00000000E+00  0.00000000E+00  0.00000000E+00  0.00000000E+00  0.00000000E+00
  0.00000000E+00  0.00000000E+00  0.00000000E+00  0.00000000E+00  0.00000000E+00
  0.00000000E+00  0.00000000E+00  0.00000000E+00  0.00000000E+00  0.00000000E+00
  0.00000000E+00  0.00000000E+00  0.00000000E+00  0.00000000E+00  0.00000000E+00
  0.00000000E+00  0.00000000E+00  0.00000000E+00  0.00000000E+00  0.00000000E+00
  0.00000000E+00  0.00000000E+00  0.00000000E+00  0.00000000E+00  0.00000000E+00
  0.00000000E+00  0.00000000E+00  0.00000000E+00  0.00000000E+00  0.00000000E+00
IOpCl                                      I                1
IROHF                                      I                0
Alpha Orbital Energies                     R   N=          88
 -1.87951863E+01 -1.00087183E+01 -9.66400473E-01 -5.70327489E-01 -4.38608235E-01
 -3.95853774E-01 -3.59865697E-01 -2.23719143E-01 -8.91981549E-02  2.39552873E-02
  8.36093711E-02  1.19241830E-01  2.53346038E-01  2.60269830E-01  3.03850172E-01
  3.89762623E-01  4.02889517E-01  4.42237712E-01  4.93319149E-01  5.03043085E-01
  5.96119125E-01  6.63714161E-01  7.16482415E-01  7.92134184E-01  8.46998241E-01
  9.28032001E-01  9.42500213E-01  9.76289606E-01  1.04100224E+00  1.06644414E+00
  1.20868912E+00  1.34728903E+00  1.46200315E+00  1.61038259E+00  1.67435609E+00
  1.78343070E+00  1.93174019E+00  1.95251947E+00  1.97494747E+00  2.11022414E+00
  2.27490416E+00  2.43098040E+00  2.48301472E+00  2.54737646E+00  2.63404462E+00
  2.72332263E+00  2.78218066E+00  2.84612322E+00  2.89170568E+00  2.98063592E+00
  3.02662001E+00  3.04588443E+00  3.18997991E+00  3.20498986E+00  3.25990487E+00
  3.26885851E+00  3.48242378E+00  3.60018671E+00  3.71152257E+00  3.77032631E+00
  3.77920099E+00  3.84202706E+00  3.96379912E+00  3.96704981E+00  4.24606530E+00
  4.25072553E+00  4.48887273E+00  4.57359847E+00  4.57429560E+00  4.60347725E+00
  4.90151976E+00  4.91626294E+00  5.05582824E+00  5.11664859E+00  5.12338270E+00
  5.55971130E+00  5.57093742E+00  5.70095482E+00  5.98601245E+00  5.99951568E+00
  6.20185444E+00  6.24029004E+00  6.65566979E+00  6.73986465E+00  6.85106427E+00
  6.92095836E+00  1.01136345E+01  1.24223710E+01
Beta Orbital Energies                      R   N=          88
 -1.87951863E+01 -1.00087183E+01 -9.66400473E-01 -5.70327489E-01 -4.38608235E-01
 -3.95853774E-01 -3.59865697E-01 -2.23719143E-01 -8.91981549E-02  2.39552873E-02
  8.36093711E-02  1.19241830E-01  2.53346038E-01  2.60269830E-01  3.03850172E-01
  3.89762623E-01  4.02889517E-01  4.42237712E-01  4.93319149E-01  5.03043085E-01
  5.96119125E-01  6.63714161E-01  7.16482415E-01  7.92134184E-01  8.46998241E-01
  9.28032001E-01  9.42500213E-01  9.76289606E-01  1.04100224E+00  1.06644414E+00
  1.20868912E+00  1.34728903E+00  1.46200315E+00  1.61038259E+00  1.67435609E+00
  1.78343070E+00  1.93174019E+00  1.95251947E+00  1.97494747E+00  2.11022414E+00
  2.27490416E+00  2.43098040E+00  2.48301472E+00  2.54737646E+00  2.63404462E+00
  2.72332263E+00  2.78218066E+00  2.84612322E+00  2.89170568E+00  2.98063592E+00
  3.02662001E+00  3.04588443E+00  3.18997991E+00  3.20498986E+00  3.25990487E+00
  3.26885851E+00  3.48242378E+00  3.60018671E+00  3.71152257E+00  3.77032631E+00
  3.77920099E+00  3.84202706E+00  3.96379912E+00  3.96704981E+00  4.24606530E+00
  4.25072553E+00  4.48887273E+00  4.57359847E+00  4.57429560E+00  4.60347725E+00
  4.90151976E+00  4.91626294E+00  5.05582824E+00  5.11664859E+00  5.12338270E+00
  5.55971130E+00  5.57093742E+00  5.70095482E+00  5.98601245E+00  5.99951568E+00
  6.20185444E+00  6.24029004E+00  6.65566979E+00  6.73986465E+00  6.85106427E+00
  6.92095836E+00  1.01136345E+01  1.24223710E+01
Alpha MO coefficients                      R   N=        7744
 -1.01689882E-04 -1.42638533E-04  6.47607553E-04 -5.88362838E-04  0.00000000E+00
  0.00000000E+00  5.00886122E-04  0.00000000E+00  0.00000000E+00 -1.02681676E-03
  0.00000000E+00  0.00000000E+00 -7.60543877E-04 -2.04321834E-05  0.00000000E+00
  0.00000000E+00  4.96892006E-05  0.00000000E+00 -1.11144707E-03  0.00000000E+00
  0.00000000E+00 -3.12172347E-04  0.00000000E+00 -9.19706731E-04  0.00000000E+00
  0.00000000E+00 -1.61616373E-04  0.00000000E+00  0.00000000E+00  0.00000000E+00
  9.72627711E-01 -1.02079913E-02  5.21725151E-02  3.59664639E-03  0.00000000E+00
  0.00000000E+00 -1.43459229E-03  0.00000000E+00  0.00000000E+00 -9.47553551E-05
  0.00000000E+00  0.00000000E+00 -2.66444284E-04  3.38577603E-04  0.00000000E+00
  0.00000000E+00  4.63277210E-05  0.00000000E+00 -2.42517563E-04  0.00000000E+00
  0.00000000E+00  6.01908222E-05  0.00000000E+00  2.52640211E-06  0.00000000E+00
  0.00000000E+00 -3.80872877E-05  0.00000000E+00  0.00000000E+00  0.00000000E+00
  2.30246892E-04 -5.79189862E-04 -1.45197118E-04  0.00000000E+00 -1.26737120E-04
  1.12257470E-04  0.00000000E+00  1.82741227E-04 -4.34514241E-04 -1.06470714E-04
  0.00000000E+00 -1.35753897E-05  5.53972050E-05  0.00000000E+00  2.30246892E-04
 -5.79189862E-04 -1.45197118E-04  0.00000000E+00  1.26737120E-04  1.12257470E-04
  0.00000000E+00 -1.82741227E-04 -4.34514241E-04 -1.06470714E-04  0.00000000E+00
  1.35753897E-05  5.53972050E-05  0.00000000E+00  9.76021365E-01  9.55208193E-03
  5.09426094E-02  1.91737637E-02  0.00000000E+00  0.00000000E+00  6.80604577E-04
  0.00000000E+00  0.00000000E+00 -1.34813289E-03  0.00000000E+00  0.00000000E+00
 -1.95179110E-03  2.03782528E-03  0.00000000E+00  0.00000000E+00 -1.89558400E-03
  0.00000000E+00  1.84397070E-03  0.00000000E+00  0.00000000E+00 -4.35241486E-03
  0.00000000E+00  2.68591444E-03  0.00000000E+00  0.00000000E+00  1.95593366E-03
  0.00000000E+00  0.00000000E+00  0.00000000E+00 -5.46352392E-04 -1.98134408E-03
  1.00228838E-03 -9.85951682E-03  0.00000000E+00  0.00000000E+00 -8.36863176E-04
  0.00000000E+00  0.00000000E+00  5.29800025E-03  0.00000000E+00  0.00000000E+00
  3.65402751E-03 -1.03018641E-04  0.00000000E+00  0.00000000E+00 -3.03447153E-05
  0.00000000E+00 -3.33563409E-03  0.00000000E+00  0.00000000E+00  5.78768780E-05
  0.00000000E+00  9.30086824E-04  0.00000000E+00  0.00000000E+00  1.43277188E-04
  0.00000000E+00  0.00000000E+00  0.00000000E+00  6.77820456E-05 -1.23260960E-02
 -3.44039136E-03  0.00000000E+00  1.21576996E-03 -8.64741184E-04  0.00000000E+00
  5.75646951E-03 -3.53404943E-03  1.80347401E-04  0.00000000E+00  1.85134382E-03
  1.29697605E-03  0.00000000E+00  6.77820456E-05 -1.23260960E-02 -3.44039136E-03
  0.00000000E+00 -1.21576996E-03 -8.64741184E-04  0.00000000E+00 -5.75646951E-03
 -3.53404943E-03  1.80347401E-04  0.00000000E+00 -1.85134382E-03  1.29697605E-03
  0.00000000E+00 -1.12821939E-01  2.28461546E-01  6.30628399E-02  6.45129490E-02
  0.00000000E+00  0.00000000E+00  1.12199547E-01  0.00000000E+00  0.00000000E+00
  7.89526055E-02  0.00000000E+00  0.00000000E+00  7.50014094E-03  1.73056360E-02
  0.00000000E+00  0.00000000E+00 -2.15685203E-03  0.00000000E+00  1.53469402E-02
  0.00000000E+00  0.00000000E+00 -6.80456289E-03  0.00000000E+00  8.88319708E-03
  0.00000000E+00  0.00000000E+00  4.40145942E-03  0.00000000E+00  0.00000000E+00
  0.00000000E+00 -1.91337038E-01  4.30154734E-01  1.31609736E-01  2.21036714E-01
  0.00000000E+00  0.00000000E+00 -9.99705210E-02  0.00000000E+00  0.00000000E+00
 -1.11888663E-01  0.00000000E+00  0.00000000E+00 -1.97490721E-02  7.60702017E-03
  0.00000000E+00  0.00000000E+00  8.56022432E-04  0.00000000E+00  1.51804839E-02
  0.00000000E+00  0.00000000E+00  3.21139706E-03  0.00000000E+00 -4.25558075E-03
  0.00000000E+00  0.00000000E+00 -2.06988465E-04  0.00000000E+00  0.00000000E+00
  0.00000000E+00  1.43638944E-02 -5.79592404E-03 -1.96712440E-03  0.00000000E+00
  4.88062692E-04  6.13839099E-04  0.00000000E+00  7.98450022E-03 -2.49159224E-03
  1.11404931E-03  0.00000000E+00  5.86331188E-04  9.80882959E-04  0.00000000E+00
  1.43638944E-02 -5.79592404E-03 -1.96712440E-03  0.00000000E+00 -4.88062692E-04
  6.13839099E-04  0.00000000E+00 -7.98450022E-03 -2.49159224E-03  1.11404931E-03
  0.00000000E+00 -5.86331188E-04  9.80882959E-04  0.00000000E+00 -1.59346842E-01
  3.60639770E-01  1.04394461E-01  1.68102370E-01  0.00000000E+00  0.00000000E+00
 -1.25997147E-01  0.00000000E+00  0.00000000E+00 -1.26976707E-01  0.00000000E+00
  0.00000000E+00 -6.14347024E-02 -4.54830490E-03  0.00000000E+00  0.00000000E+00
 -7.30530046E-03  0.00000000E+00 -7.24075600E-03  0.00000000E+00  0.00000000E+00
 -2.46284768E-03  0.00000000E+00  8.29437362E-04  0.00000000E+00  0.00000000E+00
  2.09185908E-03  0.00000000E+00  0.00000000E+00  0.00000000E+00  8.39920381E-02
 -2.02334787E-01 -6.50281556E-02 -1.70287077E-01  0.00000000E+00  0.00000000E+00
 -5.40122157E-02  0.00000000E+00  0.00000000E+00 -5.72389118E-02  0.00000000E+00
  0.00000000E+00 -4.03147387E-02  1.48100868E-03  0.00000000E+00  0.00000000E+00
 -5.69468226E-04  0.00000000E+00  3.90950767E-03  0.00000000E+00  0.00000000E+00
 -2.01384989E-03  0.00000000E+00 -4.37514475E-04  0.00000000E+00  0.00000000E+00
 -7.50113786E-05  0.00000000E+00  0.00000000E+00  0.00000000E+00  1.13522469E-01
  1.35982677E-01  2.83223603E-02  0.00000000E+00 -1.04502306E-02  4.37772557E-03
  0.00000000E+00 -1.12108308E-02  2.67532186E-03 -1.18067536E-03  0.00000000E+00
 -2.07113642E-03 -2.22266636E-03  0.00000000E+00  1.13522469E-01  1.35982677E-01
  2.83223603E-02  0.00000000E+00  1.04502306E-02  4.37772557E-03  0.00000000E+00
  1.12108308E-02  2.67532186E-03 -1.18067536E-03  0.00000000E+00  2.07113642E-03
 -2.22266636E-03  0.00000000E+00  0.00000000E+00  0.00000000E+00  0.00000000E+00
  0.00000000E+00  0.00000000E+00  2.56645890E-01  0.00000000E+00  0.00000000E+00
  2.74325791E-01  0.00000000E+00  0.00000000E+00  1.08473244E-01  0.00000000E+00
  0.00000000E+00  0.00000000E+00 -1.43359452E-03  0.00000000E+00  0.00000000E+00
  0.00000000E+00  0.00000000E+00  2.31888081E-04  0.00000000E+00  0.00000000E+00
  0.00000000E+00  0.00000000E+00  5.13581126E-03  0.00000000E+00  0.00000000E+00
  0.00000000E+00  2.98820970E-04  0.00000000E+00  0.00000000E+00  0.00000000E+00
  0.00000000E+00  0.00000000E+00  1.57135613E-01  0.00000000E+00  0.00000000E+00
  1.82781692E-01  0.00000000E+00  0.00000000E+00  1.05091262E-01  0.00000000E+00
  0.00000000E+00  0.00000000E+00 -6.98477868E-03  0.00000000E+00  0.00000000E+00
  0.00000000E+00  0.00000000E+00 -1.92637530E-02  0.00000000E+00  0.00000000E+00
  0.00000000E+00  0.00000000E+00  4.74730474E-03  0.00000000E+00  0.00000000E+00
  0.00000000E+00  7.85950423E-04  1.24286082E-01  1.63819470E-01  6.60891623E-02
  0.00000000E+00 -7.41287512E-03  8.55302270E-03  0.00000000E+00 -2.92352279E-03
  8.27508726E-03  1.39911380E-03  0.00000000E+00 -3.81478291E-03 -8.67058192E-04
  0.00000000E+00 -1.24286082E-01 -1.63819470E-01 -6.60891623E-02  0.00000000E+00
 -7.41287512E-03 -8.55302270E-03  0.00000000E+00 -2.92352279E-03 -8.27508726E-03
 -1.39911380E-03  0.00000000E+00 -3.81478291E-03  8.67058192E-04  0.00000000E+00
  3.22492720E-02 -6.92369251E-02 -2.58171112E-02  7.33915498E-02  0.00000000E+00
  0.00000000E+00 -2.08518017E-01  0.00000000E+00  0.00000000E+00 -1.70472092E-01
  0.00000000E+00  0.00000000E+00  6.84481896E-03 -1.07041164E-02  0.00000000E+00
  0.00000000E+00 -2.62983696E-03  0.00000000E+00  9.60170003E-03  0.00000000E+00
  0.00000000E+00 -3.55126350E-04  0.00000000E+00 -3.83327960E-03  0.00000000E+00
  0.00000000E+00 -2.75112658E-03  0.00000000E+00  0.00000000E+00  0.00000000E+00
 -8.12365054E-02  1.95858062E-01  6.48137684E-02  1.97435390E-01  0.00000000E+00
  0.00000000E+00  3.05217820E-01  0.00000000E+00  0.00000000E+00  3.43306990E-01
  0.00000000E+00  0.00000000E+00  2.48443274E-01 -1.01983949E-02  0.00000000E+00
  0.00000000E+00  3.81725410E-04  0.00000000E+00 -2.95370114E-02  0.00000000E+00
  0.00000000E+00  2.06466498E-03  0.00000000E+00  5.33685410E-03  0.00000000E+00
  0.00000000E+00  1.04681040E-03  0.00000000E+00  0.00000000E+00  0.00000000E+00
  5.24095366E-02  8.08994717E-02  4.94369585E-02  0.00000000E+00 -5.40113033E-03
  1.46181552E-03  0.00000000E+00 -1.49863068E-02 -4.54073074E-03 -2.40428577E-03
  0.00000000E+00 -9.83497550E-04 -2.11305334E-03  0.00000000E+00  5.24095366E-02
  8.08994717E-02  4.94369585E-02  0.00000000E+00  5.40113033E-03  1.46181552E-03
  0.00000000E+00  1.49863068E-02 -4.54073074E-03 -2.40428577E-03  0.00000000E+00
  9.83497550E-04 -2.11305334E-03  0.00000000E+00  0.00000000E+00  0.00000000E+00
  0.00000000E+00  0.00000000E+00  2.09546367E-01  0.00000000E+00  0.00000000E+00
  2.44164681E-01  0.00000000E+00  0.00000000E+00  1.48727663E-01  0.00000000E+00
  0.00000000E+00  0.00000000E+00  1.66544862E-02  0.00000000E+00  0.00000000E+00
  0.00000000E+00  0.00000000E+00  2.40993693E-02  0.00000000E+00  0.00000000E+00
  0.00000000E+00  0.00000000E+00  7.51963853E-03  0.00000000E+00  0.00000000E+00
  0.00000000E+00  6.58273236E-05  0.00000000E+00  0.00000000E+00  0.00000000E+00
  0.00000000E+00  0.00000000E+00  2.93807303E-01  0.00000000E+00  0.00000000E+00
  3.43497460E-01  0.00000000E+00  0.00000000E+00  2.28543912E-01  0.00000000E+00
  0.00000000E+00  0.00000000E+00 -8.62518383E-03  0.00000000E+00  0.00000000E+00
  0.00000000E+00  0.00000000E+00 -2.56362460E-02  0.00000000E+00  0.00000000E+00
  0.00000000E+00  0.00000000E+00  5.31921197E-03  0.00000000E+00  0.00000000E+00
  0.00000000E+00  1.32922413E-03  0.00000000E+00  0.00000000E+00  0.00000000E+00
  0.00000000E+00  4.27376855E-03  0.00000000E+00  0.00000000E+00  9.72595661E-03
  0.00000000E+00  0.00000000E+00  0.00000000E+00  1.45792974E-03  0.00000000E+00
  0.00000000E+00 -1.80491990E-03  0.00000000E+00  0.00000000E+00  0.00000000E+00