test                                                                    
SP        UBLYP                                                       Gen                 
Number of atoms                            I                4
Info1-9                                    I   N=           9
          13          12           0           1           0         111
           1          18         202
Full Title                                 C   N=           1
test        
Route                                      C   N=           8
#P ublyp IOp(5/189=2) guess=(alter,read) chkbasis geom=check
 pop=orbitals=20 output=mat         
Charge                                     I                0
Multiplicity                               I                1
Number of electrons                        I               16
Number of alpha electrons                  I                8
Number of beta electrons                   I                8
Number of basis functions                  I               88
Number of independent functions            I               88
Number of point charges in /Mol/           I                0
Number of translation vectors              I                0
Atomic numbers                             I   N=           4
           6           8           1           1
Nuclear charges                            R   N=           4
  6.00000000E+00  8.00000000E+00  1.00000000E+00  1.00000000E+00
Current cartesian coordinates              R   N=          12
  1.02368944E-15  3.27587762E-16 -1.00335648E+00 -1.31051406E-15 -4.19373643E-16
  1.28448408E+00  5.35358190E-15  1.78348116E+00 -2.12786686E+00 -1.23001947E-15
 -1.78348116E+00 -2.12786686E+00
Number of symbols in /Mol/                 I                0
Int Atom Types                             I   N=           4
           0           0           0           0
Force Field                                I                0
Atom Types                                 C   N=           4
                                                
MM charges                                 R   N=           4
  0.00000000E+00  0.00000000E+00  0.00000000E+00  0.00000000E+00
Integer atomic weights                     I   N=           4
          12          16           1           1
Real atomic weights                        R   N=           4
  1.20000000E+01  1.59949146E+01  1.00782504E+00  1.00782504E+00
Atom fragment info                         I   N=           4
           0           0           0           0
Atom residue num                           I   N=           4
           0           0           0           0
Nuclear spins                              I   N=           4
           0           0           1           1
Nuclear ZEff                               R   N=           4
 -3.60000000E+00 -5.60000000E+00 -1.00000000E+00 -1.00000000E+00
Nuclear ZNuc                               R   N=           4
  6.00000000E+00  8.00000000E+00  1.00000000E+00  1.00000000E+00
Nuclear QMom                               R   N=           4
  0.00000000E+00  0.00000000E+00  0.00000000E+00  0.00000000E+00
Nuclear GFac                               R   N=           4
  0.00000000E+00  0.00000000E+00  2.79284600E+00  2.79284600E+00
MicOpt                                     I   N=           4
          -1          -1          -1          -1
Number of residues                         I                0
Number of secondary structures             I                0
Redundant internal dimensions              I   N=           4
           7           3           3           1
Redundant internal coordinate indices      I   N=          28
           1           2           0           0           1           3
           0           0           1           4           0           0
           2           1           3           0           2           1
           4           0           3           1           4           0
           2           1           4           3
Redundant internal coordinates             R   N=           7
  2.28784056E+00  2.10839480E+00  2.10839480E+00  2.13335116E+00  2.13335116E+00
  2.01648299E+00  3.14159265E+00
ZRed-IntVec                                I   N=           7
           0           0           0           0           0           0
           0
ZRed-FPVec                                 R   N=           7
  0.00000000E+00  0.00000000E+00  0.00000000E+00  0.00000000E+00  0.00000000E+00
  0.00000000E+00  0.00000000E+00
ZRed-Constraint1                           R   N=           7
  2.28784056E+00  2.10839480E+00  2.10839480E+00  2.13335116E+00  2.13335116E+00
  2.01648299E+00  3.14159265E+00
ZRed-Constraint2                           R   N=           7
  2.37803136E+00  2.02200695E+00  2.02200695E+00  2.09439510E+00  2.09439510E+00
  2.09439510E+00  3.14159265E+00
SymInf integers                            I   N=          26
           2           4           1           1           1          -1
          -1           1          -1           1           1           1
          -1           1           0           0           0           0
           0           0           0           0           0           0
           0           0
RotTr to input orientation                 R   N=          12
  1.00000000E+00 -1.78448420E-15  1.02026493E-15  1.78448420E-15  1.00000000E+00
  3.26491898E-16 -1.02026493E-15 -3.26491898E-16  1.00000000E+00 -7.50554659E-17
  0.00000000E+00  2.00173873E-02
Number of contracted shells                I               32
Number of primitive shells                 I               62
Pure/Cartesian d shells                    I                0
Pure/Cartesian f shells                    I                0
Highest angular momentum                   I                3
Largest degree of contraction              I                7
Shell types                                I   N=          32
           0           0           0           0           1           1
           1          -2          -2          -3           0           0
           0           0           1           1           1          -2
          -2          -3           0           0           0           1
           1          -2           0           0           0           1
           1          -2
Number of primitives per shell             I   N=          32
           7           6           1           1           3           1
           1           1           1           1           7           6
           1           1           3           1           1           1
           1           1           3           1           1           1
           1           1           3           1           1           1
           1           1
Shell to atom map                          I   N=          32
           1           1           1           1           1           1
           1           1           1           1           2           2
           2           2           2           2           2           2
           2           2           3           3           3           3
           3           3           4           4           4           4
           4           4
Primitive exponents                        R   N=          62
  8.23600000E+03  1.23500000E+03  2.80800000E+02  7.92700000E+01  2.55900000E+01
  8.99700000E+00  3.31900000E+00  2.80800000E+02  7.92700000E+01  2.55900000E+01
  8.99700000E+00  3.31900000E+00  3.64300000E-01  9.05900000E-01  1.28500000E-01
  1.87100000E+01  4.13300000E+00  1.20000000E+00  3.82700000E-01  1.20900000E-01
  1.09700000E+00  3.18000000E-01  7.61000000E-01  1.53300000E+04  2.29900000E+03
  5.22400000E+02  1.47300000E+02  4.75500000E+01  1.67600000E+01  6.20700000E+00
  5.22400000E+02  1.47300000E+02  4.75500000E+01  1.67600000E+01  6.20700000E+00
  6.88200000E-01  1.75200000E+00  2.38400000E-01  3.44600000E+01  7.74900000E+00
  2.28000000E+00  7.15600000E-01  2.14000000E-01  2.31400000E+00  6.45000000E-01
  1.42800000E+00  3.38700000E+01  5.09500000E+00  1.15900000E+00  3.25800000E-01
  1.02700000E-01  1.40700000E+00  3.88000000E-01  1.05700000E+00  3.38700000E+01
  5.09500000E+00  1.15900000E+00  3.25800000E-01  1.02700000E-01  1.40700000E+00
  3.88000000E-01  1.05700000E+00
Contraction coefficients                   R   N=          62
  5.41978320E-04  4.19287382E-03  2.15221621E-02  8.35343220E-02  2.39582846E-01
  4.42852842E-01  3.51799562E-01 -5.94922494E-05 -1.14815831E-03 -1.00191374E-02
 -6.12194923E-02 -1.73269854E-01  1.07291519E+00  1.00000000E+00  1.00000000E+00
  3.94263872E-02  2.44088985E-01  8.15492009E-01  1.00000000E+00  1.00000000E+00
  1.00000000E+00  1.00000000E+00  1.00000000E+00  5.19808943E-04  4.02025621E-03
  2.07128267E-02  8.10105536E-02  2.35962985E-01  4.42653446E-01  3.57064423E-01
 -4.42115008E-05 -1.22591041E-03 -1.05517725E-02 -6.74452633E-02 -1.71198607E-01
  1.07329856E+00  1.00000000E+00  1.00000000E+00  4.11634896E-02  2.57762836E-01
  8.02419274E-01  1.00000000E+00  1.00000000E+00  1.00000000E+00  1.00000000E+00
  1.00000000E+00  2.54948632E-02  1.90362766E-01  8.52162022E-01  1.00000000E+00
  1.00000000E+00  1.00000000E+00  1.00000000E+00  1.00000000E+00  2.54948632E-02
  1.90362766E-01  8.52162022E-01  1.00000000E+00  1.00000000E+00  1.00000000E+00
  1.00000000E+00  1.00000000E+00
Coordinates of each shell                  R   N=          96
  0.00000000E+00 -2.95822839E-31 -1.00335648E+00  0.00000000E+00 -2.95822839E-31
 -1.00335648E+00  0.00000000E+00 -2.95822839E-31 -1.00335648E+00  0.00000000E+00
 -2.95822839E-31 -1.00335648E+00  0.00000000E+00 -2.95822839E-31 -1.00335648E+00
  0.00000000E+00 -2.95822839E-31 -1.00335648E+00  0.00000000E+00 -2.95822839E-31
 -1.00335648E+00  0.00000000E+00 -2.95822839E-31 -1.00335648E+00  0.00000000E+00
 -2.95822839E-31 -1.00335648E+00  0.00000000E+00 -2.95822839E-31 -1.00335648E+00
  0.00000000E+00  3.94430453E-31  1.28448408E+00  0.00000000E+00  3.94430453E-31
  1.28448408E+00  0.00000000E+00  3.94430453E-31  1.28448408E+00  0.00000000E+00
  3.94430453E-31  1.28448408E+00  0.00000000E+00  3.94430453E-31  1.28448408E+00
  0.00000000E+00  3.94430453E-31  1.28448408E+00  0.00000000E+00  3.94430453E-31
  1.28448408E+00  0.00000000E+00  3.94430453E-31  1.28448408E+00  0.00000000E+00
  3.94430453E-31  1.28448408E+00  0.00000000E+00  3.94430453E-31  1.28448408E+00
 -2.76101317E-30  1.78348116E+00 -2.12786686E+00 -2.76101317E-30  1.78348116E+00
 -2.12786686E+00 -2.76101317E-30  1.78348116E+00 -2.12786686E+00 -2.76101317E-30
  1.78348116E+00 -2.12786686E+00 -2.76101317E-30  1.78348116E+00 -2.12786686E+00
 -2.76101317E-30  1.78348116E+00 -2.12786686E+00 -2.18413450E-16 -1.78348116E+00
 -2.12786686E+00 -2.18413450E-16 -1.78348116E+00 -2.12786686E+00 -2.18413450E-16
 -1.78348116E+00 -2.12786686E+00 -2.18413450E-16 -1.78348116E+00 -2.12786686E+00
 -2.18413450E-16 -1.78348116E+00 -2.12786686E+00 -2.18413450E-16 -1.78348116E+00
 -2.12786686E+00
Constraint Structure                       R   N=          12
 -1.54182394E-16  3.36690238E-17 -1.00335648E+00  2.28508792E-16 -1.14586982E-17
  1.28448408E+00 -9.02975966E-16  1.78348116E+00 -2.12786686E+00  7.88860905E-31
 -1.78348116E+00 -2.12786686E+00
Constraint Force Constants                 R   N=          12
  0.00000000E+00  0.00000000E+00  0.00000000E+00  0.00000000E+00  0.00000000E+00
  0.00000000E+00  0.00000000E+00  0.00000000E+00  0.00000000E+00  0.00000000E+00
  0.00000000E+00  0.00000000E+00
Num ILSW                                   I              100
ILSW                                       I   N=         100
           1           0           0           0           2           0
           0           0           0           0        4002          -1
           5           0           0           0           0          -1
           0           0           0           0           0           0
           1           0           0           0           0           0
           0           0      100000           0          -1           0
           0           0           0           0           0           0
           0           0           0           1           0           0
           0 -2000000000           1           0           0           0
           0           0           4          65           0           0
           0           0           0           0           0           0
           0           0           0           4           0           1
           0           0           0           0           0           0
           0           0           0           0           0           0
           0           0           0           0           0           0
           0           0           0           0           0           0
           0           0           0           0
Num RLSW                                   I               65
RLSW                                       R   N=          65
  1.00000000E+00  1.00000000E+00  1.00000000E+00  1.00000000E+00  0.00000000E+00
  0.00000000E+00  0.00000000E+00  1.00000000E+00  0.00000000E+00  0.00000000E+00
  0.00000000E+00  0.00000000E+00  1.00000000E+00  0.00000000E+00  0.00000000E+00
  0.00000000E+00  0.00000000E+00  1.00000000E+00  0.00000000E+00  0.00000000E+00
  0.00000000E+00  0.00000000E+00  1.00000000E+00  0.00000000E+00  0.00000000E+00
  0.00000000E+00  0.00000000E+00  1.00000000E+00  0.00000000E+00  0.00000000E+00
  0.00000000E+00  0.00000000E+00  1.00000000E+00  0.00000000E+00  0.00000000E+00
  0.00000000E+00  0.00000000E+00  0.00000000E+00  1.00000000E+00  1.00000000E+00
  0.00000000E+00  1.00000000E+00  0.00000000E+00  0.00000000E+00  0.00000000E+00
  0.00000000E+00  0.00000000E+00  0.00000000E+00  0.00000000E+00  0.00000000E+00
  0.00000000E+00  0.00000000E+00  1.00000000E+00  1.00000000E+00  1.00000000E+00
  1.00000000E+00  0.00000000E+00  0.00000000E+00  0.00000000E+00  0.00000000E+00
  0.00000000E+00  0.00000000E+00  0.00000000E+00  0.00000000E+00  2.00000000E-11
MxBond                                     I                3
NBond                                      I   N=           4
           3           1           1           1
IBond                                      I   N=          12
           2           3           4           1           0           0
           1           0           0           1           0           0
RBond                                      R   N=          12
  2.00000000E+00  1.00000000E+00  1.00000000E+00  2.00000000E+00  0.00000000E+00
  0.00000000E+00  1.00000000E+00  0.00000000E+00  0.00000000E+00  1.00000000E+00
  0.00000000E+00  0.00000000E+00
Virial Ratio                               R      2.003347402682795E+00
SCF Energy                                 R     -1.143950911833087E+02
Total Energy                               R     -1.143950911833087E+02
S**2                                       R      1.007038135607027E+00
S**2 after annihilation                    R      5.634334373178563E-02
RMS Density                                R      2.790871557112098E-09
Job Status                                 I                1
Nuclear derivative order                   I                0
External E-field                           R   N=         105
  0.00000000E+00  0.00000000E+00  0.00000000E+00  0.00000000E+00  0.00000000E+00
  0.00000000E+00  0.00000000E+00  0.00000000E+00  0.00000000E+00  0.00000000E+00
  0.00000000E+00  0.00000000E+00  0.00000000E+00  0.00000000E+00  0.00000000E+00
  0.00000000E+00  0.00000000E+00  0.00000000E+00  0.00000000E+00  0.00000000E+00
  0.00000000E+00  0.00000000E+00  0.00000000E+00  0.00000000E+00  0.00000000E+00
  0.00000000E+00  0.00000000E+00  0.00000000E+00  0.00000000E+00  0.00000000E+00
  0.00000000E+00  0.00000000E+00  0.00000000E+00  0.00000000E+00  0.00000000E+00
  0.00000000E+00  0.00000000E+00  0.00000000E+00  0.00000000E+00  0.00000000E+00
  0.00000000E+00  0.00000000E+00  0.00000000E+00  0.00000000E+00  0.00000000E+00
  0.00000000E+00  0.00000000E+00  0.00000000E+00  0.00000000E+00  0.00000000E+00
  0.00000000E+00  0.00000000E+00  0.00000000E+00  0.00000000E+00  0.00000000E+00
  0.00000000E+00  0.00000000E+00  0.00000000E+00  0.00000000E+00  0.00000000E+00
  0.00000000E+00  0.00000000E+00  0.00000000E+00  0.00000000E+00  0.00000000E+00
  0.00000000E+00  0.00000000E+00  0.00000000E+00  0.00000000E+00  0.00000000E+00
  0.00000000E+00  0.00000000E+00  0.00000000E+00  0.00000000E+00  0.00000000E+00
  0.00000000E+00  0.00000000E+00  0.00000000E+00  0.00000000E+00  0.00000000E+00
  0.00000000E+00  0.00000000E+00  0.00000000E+00  0.00000000E+00  0.00000000E+00
  0.00000000E+00  0.00000000E+00  0.00000000E+00  0.00000000E+00  0.00000000E+00
  0.00000000E+00  0.00000000E+00  0.00000000E+00  0.00000000E+00  0.00000000E+00
  0.00000000E+00  0.00000000E+00  0.00000000E+00  0.00000000E+00  0.00000000E+00
  0.00000000E+00  0.00000000E+00  0.00000000E+00  0.00000000E+00  0.00000000E+00
IOpCl                                      I                1
IROHF                                      I                0
Alpha Orbital Energies                     R   N=          88
 -1.88293964E+01 -9.95913435E+00 -9.77351437E-01 -5.61870594E-01 -9.93666259E-02
 -3.71492682E-01 -4.09227693E-01 -4.32002451E-01 -2.21467666E-01  4.40771705E-01
  5.86483064E-01  1.18174188E-01  3.00949932E-01  7.21134489E-01  2.65437862E-01
  4.94372076E-01  3.09966474E-02  9.79675676E-01  1.06687963E+00  4.08975601E-01
  9.19970166E-02  9.30111858E-01  8.52259826E-01  1.03608430E+00  1.77897630E+00
  1.21526769E+00  7.90032297E-01  1.67560012E+00  6.23689256E+00  2.10894222E+00
  2.53600564E-01  6.57721546E-01  1.46186313E+00  3.03590695E+00  2.44386019E+00
  2.49185899E+00  3.99408744E-01  3.21256680E+00  2.78011475E+00  1.96687166E+00
  3.60731636E+00  2.85219798E+00  3.19972212E+00  3.95982515E+00  3.03122141E+00
  2.28031991E+00  5.97326866E+00  2.63973796E+00  3.84821950E+00  4.24792619E+00
  2.98618110E+00  1.95419057E+00  5.68906138E+00  2.73629353E+00  6.83122246E+00
  1.92301117E+00  4.49675284E+00  5.05943283E+00  3.48899341E+00  4.57983141E+00
  5.98002215E+00  3.27312408E+00  6.63018961E+00  3.77871022E+00  5.11078341E+00
  1.35653216E+00  3.72264777E+00  4.25282350E+00  4.58533475E+00  6.91260512E+00
  5.10325797E+00  4.91782357E+00  4.91216646E+00  3.97252200E+00  1.24297171E+01
  5.58683611E+00  1.01138283E+01  6.73404289E+00  3.79353590E+00  5.54622905E+00
  2.55684721E+00  4.60920034E+00  9.46643373E-01  1.59833237E+00  2.89322819E+00
  3.27088175E+00  6.18648136E+00  4.97055186E-01
Beta Orbital Energies                      R   N=          88
 -1.88395607E+01 -9.94881323E+00 -9.96717389E-01 -4.18383143E-01 -2.88525050E-01
 -4.61978027E-01 -5.58501880E-01 -3.46220172E-01 -4.64182291E-02  8.57125019E-02
  2.88385937E-01  3.03143217E-02  2.67188551E-01  2.89808025E-01  3.86629099E-01
  4.48226892E-01  4.15535338E-01  6.34070767E-01  1.45220243E+00  1.17197821E-01
  4.94494676E-01  8.38894869E-01  7.98451382E-01  1.04511803E+00  9.20882235E-01
  1.34627520E+00  5.93845716E-01  1.66802515E+00  1.89108532E+00  9.93744170E-01
  1.20446425E+00  1.03401095E+00  2.09477028E+00  2.28945630E+00  2.82649466E+00
  6.17771141E+00  5.08429804E+00  5.07270856E+00  2.66360328E+00  2.46497979E+00
  1.95890231E+00  1.80616033E+00  4.87586096E+00  2.95712568E+00  2.48635534E+00
  7.35080299E-01  4.55420359E+00  3.06877892E+00  3.25880844E+00  5.66485620E+00
  3.20036557E+00  4.48661499E+00  3.04068393E+00  2.72775358E+00  3.46348800E+00
  4.55996372E+00  4.20330277E+00  3.17712606E+00  6.87735264E+00  3.82896269E+00
  3.96432535E+00  4.22798768E+00  4.88725123E+00  5.05141810E+00  2.89260624E+00
  5.56600839E+00  2.00587531E+00  5.95355714E+00  3.97415299E+00  6.81901408E+00
  3.73305386E+00  5.99979594E+00  3.68677770E+00  6.66862185E+00  1.24359895E+01
  1.01092096E+01  3.59102363E+00  6.64997564E+00  4.61165192E+00  9.43223942E-01
  5.53042260E+00  1.58476924E+00  2.92201987E+00  3.75965909E+00  3.24786786E+00
  6.14450025E+00  5.09267579E-01  2.57664834E+00
Alpha MO coefficients                      R   N=        7744
 -1.17997258E-04 -2.38169808E-04  6.88267566E-04 -6.27184550E-04  0.00000000E+00
  0.00000000E+00  5.00890155E-04  0.00000000E+00  0.00000000E+00 -1.03118622E-03
  0.00000000E+00  0.00000000E+00 -7.00605164E-04 -4.71610020E-05  0.00000000E+00
  0.00000000E+00  5.08294849E-05  0.00000000E+00 -1.13112477E-03  0.00000000E+00
  0.00000000E+00 -2.46141254E-04  0.00000000E+00 -9.60255989E-04  0.00000000E+00
  0.00000000E+00 -1.56964626E-04  0.00000000E+00  0.00000000E+00  0.00000000E+00
  9.72876066E-01 -9.86589493E-03  5.17146534E-02  3.42363938E-03  0.00000000E+00
  0.00000000E+00 -1.43117667E-03  0.00000000E+00  0.00000000E+00 -1.52732538E-04
  0.00000000E+00  0.00000000E+00 -2.12808919E-04  4.65862880E-04  0.00000000E+00
  0.00000000E+00  4.40219015E-04  0.00000000E+00 -2.81432769E-04  0.00000000E+00
  0.00000000E+00 -8.59935211E-05  0.00000000E+00 -9.37398960E-06  0.00000000E+00
  0.00000000E+00 -3.81405438E-05  0.00000000E+00  0.00000000E+00  0.00000000E+00
  2.32276164E-04 -4.99417636E-04 -1.26909216E-04  0.00000000E+00 -1.30710423E-04
  1.18728385E-04  0.00000000E+00  1.58810459E-04 -4.14538206E-04 -1.01859802E-04
  0.00000000E+00 -1.89755655E-05  5.42229335E-05  0.00000000E+00  2.32276164E-04
 -4.99417636E-04 -1.26909216E-04  0.00000000E+00  1.30710423E-04  1.18728385E-04
  0.00000000E+00 -1.58810459E-04 -4.14538206E-04 -1.01859802E-04  0.00000000E+00
  1.89755655E-05  5.42229335E-05  0.00000000E+00  9.75374931E-01  8.73949356E-03
  5.21943460E-02  1.93385580E-02  0.00000000E+00  0.00000000E+00  1.15273341E-03
  0.00000000E+00  0.00000000E+00 -1.79997405E-03  0.00000000E+00  0.00000000E+00
 -2.03371564E-03  1.87940503E-03  0.00000000E+00  0.00000000E+00 -1.53668078E-03
  0.00000000E+00  1.66694665E-03  0.00000000E+00  0.00000000E+00 -4.51677962E-03
  0.00000000E+00  2.58725110E-03  0.00000000E+00  0.00000000E+00  1.86276445E-03
  0.00000000E+00  0.00000000E+00  0.00000000E+00 -5.17428521E-04 -1.77562393E-03
  9.99812698E-04 -9.55612759E-03  0.00000000E+00  0.00000000E+00 -8.45326951E-04
  0.00000000E+00  0.00000000E+00  5.10657477E-03  0.00000000E+00  0.00000000E+00
  3.55026283E-03 -7.02044320E-05  0.00000000E+00  0.00000000E+00 -3.56071519E-05
  0.00000000E+00 -3.34420673E-03  0.00000000E+00  0.00000000E+00  8.99034230E-05
  0.00000000E+00  9.61727098E-04  0.00000000E+00  0.00000000E+00  1.38278304E-04
  0.00000000E+00  0.00000000E+00  0.00000000E+00  1.19536358E-04 -1.23874418E-02
 -3.50261600E-03  0.00000000E+00  1.15644376E-03 -8.21682044E-04  0.00000000E+00
  5.75584747E-03 -3.57260966E-03  1.78583527E-04  0.00000000E+00  1.82201675E-03
  1.28005159E-03  0.00000000E+00  1.19536358E-04 -1.23874418E-02 -3.50261600E-03
  0.00000000E+00 -1.15644376E-03 -8.21682044E-04  0.00000000E+00 -5.75584747E-03
 -3.57260966E-03  1.78583527E-04  0.00000000E+00 -1.82201675E-03  1.28005159E-03
  0.00000000E+00 -1.09937682E-01  2.20614258E-01  5.96942927E-02  6.31913923E-02
  0.00000000E+00  0.00000000E+00  1.10031327E-01  0.00000000E+00  0.00000000E+00
  7.76522871E-02  0.00000000E+00  0.00000000E+00  5.07683396E-03  1.67854189E-02
  0.00000000E+00  0.00000000E+00 -1.07985200E-03  0.00000000E+00  1.32987854E-02
  0.00000000E+00  0.00000000E+00 -1.00241909E-02  0.00000000E+00  8.57356059E-03
  0.00000000E+00  0.00000000E+00  2.08390729E-03  0.00000000E+00  0.00000000E+00
  0.00000000E+00 -1.93097375E-01  4.37872959E-01  1.33635469E-01  2.26261567E-01
  0.00000000E+00  0.00000000E+00 -9.97771871E-02  0.00000000E+00  0.00000000E+00
 -1.12055642E-01  0.00000000E+00  0.00000000E+00 -1.78802179E-02  8.66731923E-03
  0.00000000E+00  0.00000000E+00  3.47044187E-03  0.00000000E+00  1.58393899E-02
  0.00000000E+00  0.00000000E+00  2.28411487E-03  0.00000000E+00 -4.88118603E-03
  0.00000000E+00  0.00000000E+00  2.71939285E-05  0.00000000E+00  0.00000000E+00
  0.00000000E+00  1.33893660E-02 -8.33520105E-03 -2.55004520E-03  0.00000000E+00
  1.43948046E-04  6.24043446E-04  0.00000000E+00  7.80730091E-03 -3.02103232E-03
  8.98352984E-04  0.00000000E+00  5.00807216E-04  6.98982056E-04  0.00000000E+00
  1.33893660E-02 -8.33520105E-03 -2.55004520E-03  0.00000000E+00 -1.43948046E-04
  6.24043446E-04  0.00000000E+00 -7.80730091E-03 -3.02103232E-03  8.98352984E-04
  0.00000000E+00 -5.00807216E-04  6.98982056E-04  0.00000000E+00 -1.61872228E-01
  3.65254372E-01  1.02872240E-01  1.78415421E-01  0.00000000E+00  0.00000000E+00
 -1.04967531E-01  0.00000000E+00  0.00000000E+00 -1.09803398E-01  0.00000000E+00
  0.00000000E+00 -6.10264476E-02 -5.61998220E-03  0.00000000E+00  0.00000000E+00
 -4.08325413E-03  0.00000000E+00 -8.67431648E-03  0.00000000E+00  0.00000000E+00
 -3.54185286E-03  0.00000000E+00  1.37163865E-03  0.00000000E+00  0.00000000E+00
 -2.37817664E-04  0.00000000E+00  0.00000000E+00  0.00000000E+00  8.80625386E-02
 -2.12303620E-01 -6.86756591E-02 -1.88611670E-01  0.00000000E+00  0.00000000E+00
 -7.85685721E-02  0.00000000E+00  0.00000000E+00 -8.55330513E-02  0.00000000E+00
  0.00000000E+00 -5.66148077E-02  1.99163525E-03  0.00000000E+00  0.00000000E+00
 -1.82368369E-03  0.00000000E+00  5.94336108E-03  0.00000000E+00  0.00000000E+00
 -1.95799535E-03  0.00000000E+00 -1.04015733E-03  0.00000000E+00  0.00000000E+00
 -4.31628828E-04  0.00000000E+00  0.00000000E+00  0.00000000E+00  1.08711798E-01
  1.25904949E-01  2.57075803E-02  0.00000000E+00 -1.01741559E-02  4.45165882E-03
  0.00000000E+00 -9.25997911E-03  4.30901773E-03 -7.50034988E-04  0.00000000E+00
 -2.24840367E-03 -2.21591226E-03  0.00000000E+00  1.08711798E-01  1.25904949E-01
  2.57075803E-02  0.00000000E+00  1.01741559E-02  4.45165882E-03  0.00000000E+00
  9.25997911E-03  4.30901773E-03 -7.50034988E-04  0.00000000E+00  2.24840367E-03
 -2.21591226E-03  0.00000000E+00  0.00000000E+00  0.00000000E+00  0.00000000E+00
  0.00000000E+00  2.92648940E-01  0.00000000E+00  0.00000000E+00  3.79588348E-01
  0.00000000E+00  0.00000000E+00  4.71839178E-01  0.00000000E+00  0.00000000E+00
  0.00000000E+00 -1.58172967E-02  0.00000000E+00  0.00000000E+00  0.00000000E+00
  0.00000000E+00 -3.10806492E-02  0.00000000E+00  0.00000000E+00  0.00000000E+00
  0.00000000E+00 -4.39389063E-03  0.00000000E+00  0.00000000E+00  0.00000000E+00
  9.43603011E-04  0.00000000E+00  0.00000000E+00  0.00000000E+00  0.00000000E+00
  0.00000000E+00 -2.54928645E-01  0.00000000E+00  0.00000000E+00 -2.80498991E-01
  0.00000000E+00  0.00000000E+00 -3.70846864E-01  0.00000000E+00  0.00000000E+00
  0.00000000E+00 -3.75185560E-03  0.00000000E+00  0.00000000E+00  0.00000000E+00
  0.00000000E+00 -8.52206269E-03  0.00000000E+00  0.00000000E+00  0.00000000E+00
  0.00000000E+00  1.70586312E-03  0.00000000E+00  0.00000000E+00  0.00000000E+00
 -1.30088483E-03  0.00000000E+00  0.00000000E+00  0.00000000E+00  0.00000000E+00
  8.01768554E-03  0.00000000E+00  0.00000000E+00  3.06106962E-02  0.00000000E+00
  0.00000000E+00  0.00000000E+00  1.70438098E-03  0.00000000E+00  0.00000000E+00
 -3.58430115E-03  0.00000000E+00  0.00000000E+00  0.00000000E+00  8.01768554E-03
  0.00000000E+00  0.00000000E+00  3.06106962E-02  0.00000000E+00  0.00000000E+00
  0.00000000E+00  1.70438098E-03  0.00000000E+00  0.00000000E+00  3.58430115E-03
  0.00000000E+00  0.00000000E+00  0.00000000E+00  0.00000000E+00  1.98346539E-01
  0.00000000E+00  0.00000000E+00  2.29406104E-01  0.00000000E+00  0.00000000E+00
  1.31449878E-01  0.00000000E+00  0.00000000E+00  0.00000000E+00  1.71066394E-02
  0.00000000E+00  0.00000000E+00  0.00000000E+00  0.00000000E+00  1.77557487E-02
  0.00000000E+00  0.00000000E+00  0.00000000E+00  0.00000000E+00  5.67063657E-03
  0.00000000E+00  0.00000000E+00  0.00000000E+00 -7.63447320E-04  0.00000000E+00
  0.00000000E+00  0.00000000E+00  0.00000000E+00  0.00000000E+00  3.10521536E-01
  0.00000000E+00  0.00000000E+00  3.61612539E-01  0.00000000E+00  0.00000000E+00
  2.35653685E-01  0.00000000E+00  0.00000000E+00  0.00000000E+00 -8.88594394E-03
  0.00000000E+00  0.00000000E+00  0.00000000E+00  0.00000000E+00 -2.32511851E-02
  0.00000000E+00  0.00000000E+00  0.00000000E+00  0.00000000E+00  5.45869035E-03
  0.00000000E+00  0.00000000E+00  0.00000000E+00  1.50218443E-03  0.00000000E+00
  0.00000000E+00  0.00000000E+00  0.00000000E+00  3.60282250E-03  0.00000000E+00
  0.00000000E+00  7.52684392E-03  0.00000000E+00  0.00000000E+00  0.00000000E+00
  1.19657382E-03  0.00000000E+00  0.00000000E+00 -1.07649759E-03  0.00000000E+00
  0.00000000E+00  0.00000000E+00  3.60282250E-03  0.00000000E+00  0.00000000E+00
  7.52684392E-03  0.00000000E+00  0.00000000E+00  0.00000000E+00  1.19657382E-03
  0.00000000E+00  0.00000000E+00  1.07649759E-03  1.84108935E-02 -3.59949032E-02
 -1.62812353E-02  9.43847271E-02  0.00000000E+00  0.00000000E+00 -2.10093567E-01
  0.00000000E+00  0.00000000E+00 -1.73672436E-01  0.00000000E+00  0.00000000E+00
  5.89356498E-04 -1.23437920E-02  0.00000000E+00  0.00000000E+00 -2.27034166E-03
  0.00000000E+00  7.70374456E-03  0.00000000E+00  0.00000000E+00  2.91218081E-03
  0.00000000E+00 -3.62505128E-03  0.00000000E+00  0.00000000E+00 -2.18889817E-03
  0.00000000E+00  0.00000000E+00  0.00000000E+00 -7.19483410E-02  1.72442018E-01
  5.68861233E-02  1.78005257E-01  0.00000000E+00  0.00000000E+00  3.06415663E-01
  0.00000000E+00  0.00000000E+00  3.46101270E-01  0.00000000E+00  0.00000000E+00
  2.46451205E-01 -9.86560168E-03  0.00000000E+00  0.00000000E+00  1.31982088E-03
  0.00000000E+00 -2.77981072E-02  0.00000000E+00  0.00000000E+00  2.33054767E-03
  0.00000000E+00  5.73343609E-03  0.00000000E+00  0.00000000E+00  1.17678799E-03
  0.00000000E+00  0.00000000E+00  0.00000000E+00  6.01789149E-02  9.12054968E-02
  4.96582237E-02  0.00000000E+00 -5.99543617E-03  1.82209750E-03  0.00000000E+00
 -1.53511815E-02 -1.22988213E-03 -2.11131243E-03  0.00000000E+00 -1.34614095E-03
 -2.14773167E-03  0.00000000E+00  6.01789149E-02  9.12054968E-02  4.96582237E-02
  0.00000000E+00  5.99543617E-03  1.82209750E-03  0.00000000E+00  1.53511815E-02